# vtk DataFile Version 4.1
Laplace Equation Solution with Fluxes
ASCII
DATASET UNSTRUCTURED_GRID
 
POINTS 961 float
    0.000000    0.000000    0.000000
    0.033333    0.000000    0.000000
    0.066667    0.000000    0.000000
    0.100000    0.000000    0.000000
    0.133333    0.000000    0.000000
    0.166667    0.000000    0.000000
    0.200000    0.000000    0.000000
    0.233333    0.000000    0.000000
    0.266667    0.000000    0.000000
    0.300000    0.000000    0.000000
    0.333333    0.000000    0.000000
    0.366667    0.000000    0.000000
    0.400000    0.000000    0.000000
    0.433333    0.000000    0.000000
    0.466667    0.000000    0.000000
    0.500000    0.000000    0.000000
    0.533333    0.000000    0.000000
    0.566667    0.000000    0.000000
    0.600000    0.000000    0.000000
    0.633333    0.000000    0.000000
    0.666667    0.000000    0.000000
    0.700000    0.000000    0.000000
    0.733333    0.000000    0.000000
    0.766667    0.000000    0.000000
    0.800000    0.000000    0.000000
    0.833333    0.000000    0.000000
    0.866667    0.000000    0.000000
    0.900000    0.000000    0.000000
    0.933333    0.000000    0.000000
    0.966667    0.000000    0.000000
    1.000000    0.000000    0.000000
    0.000000    0.033333    0.000000
    0.033333    0.033333    0.000000
    0.066667    0.033333    0.000000
    0.100000    0.033333    0.000000
    0.133333    0.033333    0.000000
    0.166667    0.033333    0.000000
    0.200000    0.033333    0.000000
    0.233333    0.033333    0.000000
    0.266667    0.033333    0.000000
    0.300000    0.033333    0.000000
    0.333333    0.033333    0.000000
    0.366667    0.033333    0.000000
    0.400000    0.033333    0.000000
    0.433333    0.033333    0.000000
    0.466667    0.033333    0.000000
    0.500000    0.033333    0.000000
    0.533333    0.033333    0.000000
    0.566667    0.033333    0.000000
    0.600000    0.033333    0.000000
    0.633333    0.033333    0.000000
    0.666667    0.033333    0.000000
    0.700000    0.033333    0.000000
    0.733333    0.033333    0.000000
    0.766667    0.033333    0.000000
    0.800000    0.033333    0.000000
    0.833333    0.033333    0.000000
    0.866667    0.033333    0.000000
    0.900000    0.033333    0.000000
    0.933333    0.033333    0.000000
    0.966667    0.033333    0.000000
    1.000000    0.033333    0.000000
    0.000000    0.066667    0.000000
    0.033333    0.066667    0.000000
    0.066667    0.066667    0.000000
    0.100000    0.066667    0.000000
    0.133333    0.066667    0.000000
    0.166667    0.066667    0.000000
    0.200000    0.066667    0.000000
    0.233333    0.066667    0.000000
    0.266667    0.066667    0.000000
    0.300000    0.066667    0.000000
    0.333333    0.066667    0.000000
    0.366667    0.066667    0.000000
    0.400000    0.066667    0.000000
    0.433333    0.066667    0.000000
    0.466667    0.066667    0.000000
    0.500000    0.066667    0.000000
    0.533333    0.066667    0.000000
    0.566667    0.066667    0.000000
    0.600000    0.066667    0.000000
    0.633333    0.066667    0.000000
    0.666667    0.066667    0.000000
    0.700000    0.066667    0.000000
    0.733333    0.066667    0.000000
    0.766667    0.066667    0.000000
    0.800000    0.066667    0.000000
    0.833333    0.066667    0.000000
    0.866667    0.066667    0.000000
    0.900000    0.066667    0.000000
    0.933333    0.066667    0.000000
    0.966667    0.066667    0.000000
    1.000000    0.066667    0.000000
    0.000000    0.100000    0.000000
    0.033333    0.100000    0.000000
    0.066667    0.100000    0.000000
    0.100000    0.100000    0.000000
    0.133333    0.100000    0.000000
    0.166667    0.100000    0.000000
    0.200000    0.100000    0.000000
    0.233333    0.100000    0.000000
    0.266667    0.100000    0.000000
    0.300000    0.100000    0.000000
    0.333333    0.100000    0.000000
    0.366667    0.100000    0.000000
    0.400000    0.100000    0.000000
    0.433333    0.100000    0.000000
    0.466667    0.100000    0.000000
    0.500000    0.100000    0.000000
    0.533333    0.100000    0.000000
    0.566667    0.100000    0.000000
    0.600000    0.100000    0.000000
    0.633333    0.100000    0.000000
    0.666667    0.100000    0.000000
    0.700000    0.100000    0.000000
    0.733333    0.100000    0.000000
    0.766667    0.100000    0.000000
    0.800000    0.100000    0.000000
    0.833333    0.100000    0.000000
    0.866667    0.100000    0.000000
    0.900000    0.100000    0.000000
    0.933333    0.100000    0.000000
    0.966667    0.100000    0.000000
    1.000000    0.100000    0.000000
    0.000000    0.133333    0.000000
    0.033333    0.133333    0.000000
    0.066667    0.133333    0.000000
    0.100000    0.133333    0.000000
    0.133333    0.133333    0.000000
    0.166667    0.133333    0.000000
    0.200000    0.133333    0.000000
    0.233333    0.133333    0.000000
    0.266667    0.133333    0.000000
    0.300000    0.133333    0.000000
    0.333333    0.133333    0.000000
    0.366667    0.133333    0.000000
    0.400000    0.133333    0.000000
    0.433333    0.133333    0.000000
    0.466667    0.133333    0.000000
    0.500000    0.133333    0.000000
    0.533333    0.133333    0.000000
    0.566667    0.133333    0.000000
    0.600000    0.133333    0.000000
    0.633333    0.133333    0.000000
    0.666667    0.133333    0.000000
    0.700000    0.133333    0.000000
    0.733333    0.133333    0.000000
    0.766667    0.133333    0.000000
    0.800000    0.133333    0.000000
    0.833333    0.133333    0.000000
    0.866667    0.133333    0.000000
    0.900000    0.133333    0.000000
    0.933333    0.133333    0.000000
    0.966667    0.133333    0.000000
    1.000000    0.133333    0.000000
    0.000000    0.166667    0.000000
    0.033333    0.166667    0.000000
    0.066667    0.166667    0.000000
    0.100000    0.166667    0.000000
    0.133333    0.166667    0.000000
    0.166667    0.166667    0.000000
    0.200000    0.166667    0.000000
    0.233333    0.166667    0.000000
    0.266667    0.166667    0.000000
    0.300000    0.166667    0.000000
    0.333333    0.166667    0.000000
    0.366667    0.166667    0.000000
    0.400000    0.166667    0.000000
    0.433333    0.166667    0.000000
    0.466667    0.166667    0.000000
    0.500000    0.166667    0.000000
    0.533333    0.166667    0.000000
    0.566667    0.166667    0.000000
    0.600000    0.166667    0.000000
    0.633333    0.166667    0.000000
    0.666667    0.166667    0.000000
    0.700000    0.166667    0.000000
    0.733333    0.166667    0.000000
    0.766667    0.166667    0.000000
    0.800000    0.166667    0.000000
    0.833333    0.166667    0.000000
    0.866667    0.166667    0.000000
    0.900000    0.166667    0.000000
    0.933333    0.166667    0.000000
    0.966667    0.166667    0.000000
    1.000000    0.166667    0.000000
    0.000000    0.200000    0.000000
    0.033333    0.200000    0.000000
    0.066667    0.200000    0.000000
    0.100000    0.200000    0.000000
    0.133333    0.200000    0.000000
    0.166667    0.200000    0.000000
    0.200000    0.200000    0.000000
    0.233333    0.200000    0.000000
    0.266667    0.200000    0.000000
    0.300000    0.200000    0.000000
    0.333333    0.200000    0.000000
    0.366667    0.200000    0.000000
    0.400000    0.200000    0.000000
    0.433333    0.200000    0.000000
    0.466667    0.200000    0.000000
    0.500000    0.200000    0.000000
    0.533333    0.200000    0.000000
    0.566667    0.200000    0.000000
    0.600000    0.200000    0.000000
    0.633333    0.200000    0.000000
    0.666667    0.200000    0.000000
    0.700000    0.200000    0.000000
    0.733333    0.200000    0.000000
    0.766667    0.200000    0.000000
    0.800000    0.200000    0.000000
    0.833333    0.200000    0.000000
    0.866667    0.200000    0.000000
    0.900000    0.200000    0.000000
    0.933333    0.200000    0.000000
    0.966667    0.200000    0.000000
    1.000000    0.200000    0.000000
    0.000000    0.233333    0.000000
    0.033333    0.233333    0.000000
    0.066667    0.233333    0.000000
    0.100000    0.233333    0.000000
    0.133333    0.233333    0.000000
    0.166667    0.233333    0.000000
    0.200000    0.233333    0.000000
    0.233333    0.233333    0.000000
    0.266667    0.233333    0.000000
    0.300000    0.233333    0.000000
    0.333333    0.233333    0.000000
    0.366667    0.233333    0.000000
    0.400000    0.233333    0.000000
    0.433333    0.233333    0.000000
    0.466667    0.233333    0.000000
    0.500000    0.233333    0.000000
    0.533333    0.233333    0.000000
    0.566667    0.233333    0.000000
    0.600000    0.233333    0.000000
    0.633333    0.233333    0.000000
    0.666667    0.233333    0.000000
    0.700000    0.233333    0.000000
    0.733333    0.233333    0.000000
    0.766667    0.233333    0.000000
    0.800000    0.233333    0.000000
    0.833333    0.233333    0.000000
    0.866667    0.233333    0.000000
    0.900000    0.233333    0.000000
    0.933333    0.233333    0.000000
    0.966667    0.233333    0.000000
    1.000000    0.233333    0.000000
    0.000000    0.266667    0.000000
    0.033333    0.266667    0.000000
    0.066667    0.266667    0.000000
    0.100000    0.266667    0.000000
    0.133333    0.266667    0.000000
    0.166667    0.266667    0.000000
    0.200000    0.266667    0.000000
    0.233333    0.266667    0.000000
    0.266667    0.266667    0.000000
    0.300000    0.266667    0.000000
    0.333333    0.266667    0.000000
    0.366667    0.266667    0.000000
    0.400000    0.266667    0.000000
    0.433333    0.266667    0.000000
    0.466667    0.266667    0.000000
    0.500000    0.266667    0.000000
    0.533333    0.266667    0.000000
    0.566667    0.266667    0.000000
    0.600000    0.266667    0.000000
[...]
POINT_DATA 961
SCALARS Solution float 1
LOOKUP_TABLE default
    0.500000
    0.499799
    0.499194
    0.498187
    0.496777
    0.494963
    0.492745
    0.490120
    0.487085
    0.483636
    0.479764
    0.475459
    0.470706
    0.465487
    0.459775
    0.453536
    0.446726
    0.439288
    0.431146
    0.422202
    0.412325
    0.401338
    0.388996
    0.374951
    0.358685
    0.339380
    0.315631
    0.284727
    0.240459
    0.165432
    0.000000
    0.500201
    0.500000
    0.499396
    0.498389
    0.496979
    0.495166
    0.492948
    0.490325
    0.487293
    0.483847
    0.479980
    0.475682
    0.470940
    0.465733
    0.460038
    0.453821
    0.447040
    0.439639
    0.431547
    0.422669
    0.412880
    0.402015
    0.389848
    0.376062
    0.360205
    0.341601
    0.319209
    0.291409
    0.255838
    0.210635
    0.165432
    0.500806
    0.500604
    0.500000
    0.498993
    0.497584
    0.495772
    0.493558
    0.490939
    0.487914
    0.484479
    0.480628
    0.476351
    0.471637
    0.466468
    0.460823
    0.454671
    0.447974
    0.440683
    0.432734
    0.424045
    0.414511
    0.403995
    0.392318
    0.379245
    0.364472
    0.347608
    0.328197
    0.305861
    0.280850
    0.255838
    0.240459
    0.501813
    0.501611
    0.501007
    0.500000
    0.498591
    0.496782
    0.494571
    0.491959
    0.488946
    0.485527
    0.481700
    0.477457
    0.472789
    0.467681
    0.462114
    0.456065
    0.449502
    0.442384
    0.434661
    0.426267
    0.417125
    0.407136
    0.396182
    0.384128
    0.370829
    0.356162
    0.340112
    0.322987
    0.305861
    0.291409
    0.284727
    0.503223
    0.503021
    0.502416
    0.501409
    0.500000
    0.498192
    0.495985
    0.493382
    0.490382
    0.486984
    0.483188
    0.478989
    0.474380
    0.469351
    0.463888
    0.457974
    0.451585
    0.444692
    0.437257
    0.429239
    0.420585
    0.411240
    0.401148
    0.390258
    0.378555
    0.366097
    0.353104
    0.340112
    0.328198
    0.319209
    0.315631
    0.505037
    0.504834
    0.504228
    0.503218
    0.501808
    0.500000
    0.497796
    0.495200
    0.492215
    0.488841
    0.485080
    0.480931
    0.476391
    0.471454
    0.466114
    0.460358
    0.454173
    0.447540
    0.440438
    0.432845
    0.424736
    0.416094
    0.406910
    0.397201
    0.387035
    0.376566
    0.366097
    0.356162
    0.347608
    0.341601
    0.339380
    0.507255
    0.507052
    0.506442
    0.505429
    0.504015
    0.502204
    0.500000
    0.497409
    0.494436
    0.491084
    0.487359
    0.483263
    0.478798
    0.473962
    0.468755
    0.463172
    0.457208
    0.450856
    0.444111
    0.436966
    0.429422
    0.421489
    0.413195
    0.404601
    0.395818
    0.387035
    0.378555
    0.370829
    0.364472
    0.360205
    0.358685
    0.509880
    0.509675
    0.509061
    0.508041
    0.506618
    0.504800
    0.502591
    0.500000
    0.497034
    0.493702
    0.490010
    0.485966
    0.481574
    0.476842
    0.471771
    0.466367
    0.460631
    0.454567
    0.448182
    0.441486
    0.434496
    0.427244
    0.419782
    0.412192
    0.404601
    0.397201
    0.390258
    0.384128
    0.379245
    0.376062
    0.374951
    0.512915
    0.512707
    0.512086
    0.511054
    0.509618
    0.507785
    0.505564
    0.502966
    0.500000
    0.496679
    0.493013
    0.489015
    0.484693
    0.480059
    0.475122
    0.469893
    0.464381
    0.458600
    0.452565
    0.446299
    0.439833
    0.433210
    0.426496
    0.419782
    0.413195
    0.406910
    0.401148
    0.396182
    0.392318
    0.389848
    0.388996
    0.516364
    0.516153
    0.515521
    0.514473
    0.513016
    0.511159
    0.508916
    0.506298
    0.503321
    0.500000
    0.496350
    0.492386
    0.488124
    0.483579
    0.478766
    0.473701
    0.468401
    0.462886
    0.457180
    0.451313
    0.445325
    0.439268
    0.433210
    0.427244
    0.421489
    0.416094
    0.411240
    0.407136
    0.403995
    0.402015
    0.401338
    0.520236
    0.520020
    0.519372
    0.518300
    0.516812
    0.514920
    0.512641
    0.509990
    0.506987
    0.503650
    0.500000
    0.496056
    0.491838
    0.487367
    0.482661
    0.477743
    0.472635
    0.467363
    0.461955
    0.456449
    0.450887
    0.445325
    0.439833
    0.434496
    0.429422
    0.424736
    0.420585
    0.417125
    0.414511
    0.412880
    0.412325
    0.524541
    0.524318
    0.523649
    0.522543
    0.521011
    0.519069
    0.516737
    0.514034
    0.510985
    0.507614
    0.503944
    0.500000
    0.495807
    0.491388
    0.486770
    0.481976
    0.477034
    0.471975
    0.466830
    0.461639
    0.456449
    0.451313
    0.446299
    0.441486
    0.436966
    0.432845
    0.429239
    0.426267
    0.424045
    0.422669
    0.422202
    0.529294
    0.529060
    0.528363
    0.527211
    0.525620
    0.523609
    0.521202
    0.518426
    0.515307
    0.511876
    0.508162
    0.504193
    0.500000
    0.495610
    0.491053
    0.486356
    0.481552
    0.476671
    0.471751
    0.466830
    0.461955
    0.457180
    0.452565
    0.448182
    0.444111
    0.440438
    0.437257
    0.434661
    0.432734
    0.431547
    0.431146
    0.534513
    0.534267
    0.533532
    0.532319
    0.530649
    0.528546
    0.526038
    0.523158
    0.519941
    0.516421
    0.512633
    0.508612
    0.504390
    0.500000
    0.495474
    0.490845
    0.486145
    0.481408
    0.476671
    0.471975
    0.467363
    0.462886
    0.458600
    0.454567
    0.450856
    0.447540
    0.444692
    0.442384
    0.440683
    0.439639
    0.439288
    0.540225
    0.539962
    0.539177
    0.537886
    0.536112
    0.533886
    0.531245
    0.528229
    0.524878
    0.521234
    0.517339
    0.513230
    0.508947
    0.504526
    0.500000
    0.495405
    0.490775
    0.486145
    0.481552
    0.477034
    0.472635
    0.468401
    0.464381
    0.460631
    0.457208
    0.454173
    0.451585
    0.449502
    0.447974
    0.447040
    0.446726
    0.546464
    0.546179
    0.545329
    0.543935
    0.542026
    0.539642
    0.536828
    0.533633
    0.530107
    0.526299
    0.522257
    0.518024
    0.513644
    0.509155
    0.504595
    0.500000
    0.495405
    0.490845
    0.486356
    0.481976
    0.477743
    0.473701
    0.469893
    0.466367
    0.463172
    0.460358
    0.457974
    0.456065
    0.454671
    0.453821
    0.453536
    0.553274
    0.552960
    0.552026
    0.550498
    0.548415
    0.545827
    0.542792
    0.539369
    0.535619
    0.531599
    0.527365
    0.522966
    0.518448
    0.513855
    0.509225
    0.504595
    0.500000
    0.495474
    0.491053
    0.486770
    0.482661
    0.478766
    0.475122
    0.471771
    0.468755
    0.466114
    0.463888
    0.462114
    0.460823
    0.460038
    0.459775
    0.560712
    0.560361
    0.559317
    0.557616
    0.555308
    0.552460
    0.549144
    0.545433
    0.541400
    0.537114
    0.532637
    0.528025
    0.523329
    0.518592
    0.513855
    0.509155
    0.504526
    0.500000
    0.495610
    0.491388
    0.487367
    0.483579
    0.480059
    0.476842
    0.473962
    0.471454
    0.469351
    0.467681
    0.466468
    0.465733
    0.465487
    0.568854
    0.568453
    0.567266
    0.565339
    0.562743
    0.559562
    0.555889
    0.551818
    0.547435
    0.542820
    0.538045
    0.533170
    0.528249
    0.523329
    0.518448
    0.513644
    0.508947
    0.504390
    0.500000
    0.495807
    0.491838
    0.488124
    0.484693
    0.481574
    0.478798
    0.476391
    0.474380
    0.472789
    0.471637
    0.470940
    0.470706
    0.577798
    0.577331
    0.575955
    0.573733
    0.570761
    0.567155
    0.563034
    0.558514
    0.553701
    0.548687
    0.543551
    0.538361
    0.533170
    0.528025
    0.522966
    0.518024
    0.513230
    0.508612
    0.504193
    0.500000
    0.496056
    0.492386
    0.489015
    0.485966
    0.483263
    0.480931
    0.478989
    0.477457
    0.476351
    0.475682
    0.475459
    0.587675
    0.587120
    0.585489
    0.582875
    0.579415
    0.575264
    0.570578
    0.565504
    0.560167
    0.554675
    0.549113
    0.543551
    0.538045
    0.532637
    0.527365
    0.522257
    0.517339
    0.512633
    0.508162
    0.503944
    0.500000
    0.496350
    0.493013
    0.490010
    0.487359
    0.485080
    0.483188
    0.481700
    0.480628
    0.479980
    0.479764
    0.598662
    0.597985
    0.596005
    0.592864
    0.588760
    0.583906
    0.578511
    0.572756
    0.566790
    0.560732
    0.554675
    0.548687
    0.542820
    0.537114
    0.531599
    0.526299
    0.521234
    0.516421
    0.511876
    0.507614
    0.503650
    0.500000
    0.496679
    0.493702
    0.491084
    0.488841
    0.486984
    0.485527
    0.484479
    0.483847
    0.483636
    0.611004
    0.610152
    0.607682
    0.603818
    0.598852
    0.593090
    0.586805
    0.580218
    0.573504
    0.566790
    0.560167
    0.553701
    0.547435
    0.541400
    0.535619
    0.530107
    0.524878
    0.519941
    0.515307
    0.510985
    0.506987
    0.503321
    0.500000
    0.497034
    0.494436
    0.492215
    0.490382
    0.488946
    0.487914
    0.487293
    0.487085
    0.625049
    0.623938
    0.620755
    0.615872
    0.609742
    0.602799
    0.595399
    0.587808
    0.580218
    0.572756
    0.565504
    0.558514
    0.551818
    0.545433
    0.539369
    0.533633
    0.528229
    0.523158
    0.518426
    0.514034
    0.509990
    0.506298
    0.502966
    0.500000
    0.497409
    0.495200
    0.493382
    0.491959
    0.490939
    0.490325
    0.490120
    0.641315
    0.639795
    0.635528
    0.629171
    0.621445
    0.612965
    0.604182
    0.595399
    0.586805
    0.578511
    0.570578
    0.563034
    0.555889
    0.549144
    0.542792
    0.536828
    0.531245
    0.526038
    0.521202
    0.516737
    0.512641
    0.508916
    0.505564
    0.502591
    0.500000
    0.497796
    0.495985
    0.494571
    0.493558
    0.492948
    0.492745
    0.660620
    0.658399
    0.652392
    0.643838
    0.633903
    0.623434
    0.612965
    0.602799
    0.593090
    0.583906
    0.575264
    0.567155
    0.559562
    0.552460
    0.545827
    0.539642
    0.533886
    0.528546
    0.523609
    0.519069
    0.514920
    0.511159
    0.507785
    0.504800
    0.502204
    0.500000
    0.498192
    0.496782
    0.495772
    0.495166
    0.494963
    0.684369
    0.680791
    0.671803
    0.659888
    0.646896
    0.633903
    0.621445
    0.609742
    0.598852
    0.588760
    0.579415
    0.570761
    0.562743
    0.555308
    0.548415
    0.542026
    0.536112
    0.530649
    0.525620
    0.521011
    0.516812
    0.513016
    0.509618
    0.506618
    0.504015
    0.501808
    0.500000
    0.498591
    0.497584
    0.496979
    0.496777
    0.715273
    0.708591
    0.694139
    0.677013
    0.659888
    0.643838
    0.629171
    0.615872
    0.603818
    0.592864
    0.582875
    0.573733
    0.565339
    0.557616
    0.550498
    0.543935
    0.537886
    0.532319
    0.527211
    0.522543
    0.518300
    0.514473
    0.511054
    0.508041
    0.505429
    0.503218
    0.501409
    0.500000
    0.498993
    0.498389
    0.498187
    0.759541
    0.744162
    0.719150
    0.694139
    0.671802
    0.652392
    0.635528
    0.620755
    0.607682
    0.596005
    0.585489
    0.575955
    0.567266
    0.559317
    0.552026
    0.545329
    0.539177
    0.533532
    0.528363
    0.523649
    0.519372
    0.515521
    0.512086
    0.509061
    0.506442
    0.504228
    0.502416
    0.501007
    0.500000
    0.499396
    0.499194
    0.834568
    0.789365
    0.744162
    0.708591
    0.680791
    0.658399
    0.639795
    0.623938
    0.610152
    0.597985
    0.587120
    0.577331
    0.568453
    0.560361
    0.552960
    0.546179
    0.539962
    0.534267
    0.529060
    0.524318
    0.520020
    0.516153
    0.512707
    0.509675
    0.507052
    0.504834
    0.503021
    0.501611
    0.500604
    0.500000
    0.499799
    1.000000
    0.834568
    0.759541
    0.715273
    0.684369
    0.660620
    0.641315
    0.625049
    0.611004
    0.598662
    0.587675
    0.577798
    0.568854
    0.560712
    0.553274
    0.546464
    0.540225
    0.534513
    0.529294
    0.524541
    0.520236
    0.516364
    0.512915
    0.509880
    0.507255
    0.505037
    0.503223
    0.501813
    0.500806
    0.500201
    0.500000
 
CELL_DATA 1800
SCALARS Flux_X float 1
LOOKUP_TABLE default
    0.006042
    0.006042
    0.018127
    0.018127
    0.030210
    0.030213
    0.042297
    0.042304
    0.054395
    0.054411
    0.066520
    0.066549
    0.078698
    0.078747
    0.090967
    0.091043
    0.103379
    0.103491
    0.116004
    0.116162
    0.128933
    0.129150
    0.142281
    0.142573
    0.156193
    0.156581
    0.170856
    0.171365
    0.186503
    0.187166
    0.203430
    0.204294
    0.222021
    0.223147
    0.242775
    0.244254
    0.266353
    0.268318
    0.293658
    0.296312
    0.325946
    0.329613
    0.365020
    0.370249
    0.413565
    0.421342
    0.475723
    0.487991
    0.558135
    0.579175
    0.671726
    0.712439
    0.834024
    0.927133
    1.067121
    1.328040
    1.356084
    2.250789
    1.356080
    4.962997
    0.006043
    0.006042
    0.018127
    0.018127
    0.030205
    0.030210
    0.042278
    0.042297
    0.054351
    0.054395
    0.066437
    0.066520
    0.078558
    0.078698
    0.090748
    0.090967
    0.103055
    0.103379
    0.115543
    0.116004
    0.128297
    0.128933
    0.141423
    0.142281
    0.155056
    0.156193
    0.169364
    0.170856
    0.184559
    0.186503
    0.200904
    0.203430
    0.218733
    0.222021
    0.238470
    0.242775
    0.260662
    0.266353
    0.286022
    0.293658
    0.315491
    0.325946
    0.350321
    0.365020
    0.392174
    0.413565
    0.443200
    0.475723
    0.505916
    0.558135
    0.582305
    0.671726
    0.670112
    0.834024
    0.750337
    1.067121
    0.750338
    1.356084
    0.461370
    1.356080
    0.006046
    0.006043
    0.018132
    0.018127
    0.030205
    0.030205
    0.042259
    0.042278
    0.054295
    0.054351
    0.066319
    0.066437
    0.078349
    0.078558
    0.090411
    0.090748
    0.102548
    0.103055
    0.114816
    0.115543
    0.127288
    0.128297
    0.140058
    0.141423
    0.153242
    0.155056
    0.166986
    0.169364
    0.181465
    0.184559
    0.196894
    0.200904
    0.213536
    0.218733
    0.231710
    0.238470
    0.251802
    0.260662
    0.274277
    0.286022
    0.299676
    0.315491
    0.328599
    0.350321
    0.361611
    0.392174
    0.398984
    0.443200
    0.440027
    0.505916
    0.481469
    0.582305
    0.513780
    0.670112
    0.513780
    0.750337
    0.433555
    0.750338
    0.200453
    0.461370
    0.006053
    0.006046
    0.018151
    0.018132
    0.030224
    0.030205
    0.042259
    0.042259
    0.054250
    0.054295
    0.066196
    0.066319
    0.078106
    0.078349
    0.090001
    0.090411
    0.101912
    0.102548
    0.113885
    0.114816
    0.125981
    0.127288
    0.138278
    0.140058
    0.150870
    0.153242
    0.163872
    0.166986
    0.177420
    0.181465
    0.191671
    0.196894
    0.206808
    0.213536
    0.223032
    0.231710
    0.240561
    0.251802
    0.259607
    0.274277
    0.280337
    0.299676
    0.302789
    0.328599
    0.326688
    0.361611
    0.351099
    0.398984
    0.373741
    0.440027
    0.389762
    0.481469
    0.389762
    0.513780
    0.357450
    0.513780
    0.269644
    0.433555
    0.107345
    0.200453
    0.006069
    0.006053
    0.018194
    0.018151
    0.030280
    0.030224
    0.042304
    0.042259
    0.054250
    0.054250
    0.066109
    0.066196
    0.077880
    0.078106
    0.089574
    0.090001
    0.101213
    0.101912
    0.112831
    0.113885
    0.124474
    0.125981
    0.136203
    0.138278
    0.148087
    0.150870
    0.160212
    0.163872
    0.172671
    0.177420
    0.185563
    0.191671
    0.198992
    0.206808
    0.213050
    0.223032
    0.227802
    0.240561
    0.243251
    0.259607
    0.259277
    0.280337
    0.275530
    0.302789
    0.291253
    0.326688
    0.304981
    0.351099
    0.314073
    0.373741
    0.314073
    0.389762
    0.298052
    0.389762
    0.256611
    0.357450
    0.180223
    0.269644
    0.066631
    0.107345
    0.006099
    0.006069
    0.018277
    0.018194
    0.030398
    0.030280
    0.042427
    0.042304
    0.054338
    0.054250
    0.066109
    0.066109
    0.077730
    0.077880
    0.089202
    0.089574
    0.100535
    0.101213
    0.111751
    0.112831
    0.122882
    0.124474
    0.133971
    0.136203
    0.145065
    0.148087
    0.156219
    0.160212
    0.167487
    0.172671
    0.178919
    0.185563
    0.190547
    0.198992
    0.202374
    0.213050
    0.214347
    0.227802
    0.226320
    0.243251
    0.237989
    0.259277
    0.248801
    0.275530
    0.257814
    0.291253
    0.263500
    0.304981
    0.263500
    0.314073
    0.254407
    0.314073
    0.231765
    0.298052
    0.190723
    0.256611
    0.128005
    0.180223
    0.045592
    0.066631
    0.006148
    0.006099
    0.018417
    0.018277
    0.030607
    0.030398
    0.042670
    0.042427
    0.054564
    0.054338
    0.066258
    0.066109
    0.077730
    0.077730
    0.088968
    0.089202
    0.099974
    0.100535
    0.110756
    0.111751
    0.121334
    0.122882
    0.131733
    0.133971
    0.141983
    0.145065
    0.152112
    0.156219
    0.162141
    0.167487
    0.172078
    0.178919
    0.181902
    0.190547
    0.191551
    0.202374
    0.200893
    0.214347
    0.209692
    0.226320
    0.217558
    0.237989
    0.223872
    0.248801
    0.227704
    0.257814
    0.227704
    0.263500
    0.222019
    0.263500
    0.208291
    0.254407
    0.183880
    0.231765
    0.146508
    0.190723
    0.095482
    0.128005
    0.033324
    0.045592
    0.006224
    0.006148
    0.018636
    0.018417
    0.030943
    0.030607
    0.043080
    0.042670
    0.054991
    0.054564
    0.066630
    0.066258
    0.077963
    0.077730
    0.088968
    0.088968
    0.099636
    0.099974
    0.109965
    0.110756
    0.119964
    0.121334
    0.129645
    0.131733
    0.139022
    0.141983
    0.148104
    0.152112
    0.156887
    0.162141
    0.165349
    0.172078
    0.173433
    0.181902
    0.181035
    0.191551
    0.187982
    0.200893
    0.193999
    0.209692
    0.198676
    0.217558
    0.201424
    0.223872
    0.201424
    0.227704
    0.197592
    0.227704
    0.188579
    0.222019
    0.172856
    0.208291
    0.148956
    0.183880
    0.115944
    0.146508
    0.074091
    0.095482
    0.025546
    0.033324
    0.006336
    0.006224
    0.018961
    0.018636
    0.031449
    0.030943
    0.043717
    0.043080
    0.055690
    0.054991
    0.067308
    0.066630
    0.078524
    0.077963
    0.089306
    0.088968
    0.099636
    0.099636
    0.109504
    0.109965
    0.118911
    0.119964
    0.127861
    0.129645
    0.136357
    0.139022
    0.144395
    0.148104
    0.151955
    0.156887
    0.158997
    0.165349
    0.165445
    0.173433
    0.171176
    0.181035
    0.176000
    0.187982
    0.179645
    0.193999
    0.181725
    0.198676
    0.181725
    0.201424
    0.178977
    0.201424
    0.172663
    0.197592
    0.161851
    0.188579
    0.145597
    0.172856
    0.123146
    0.148956
    0.094223
    0.115944
    0.059392
    0.074091
    0.020318
    0.025546
    0.006494
    0.006336
    0.019423
    0.018961
    0.032176
    0.031449
    0.044648
    0.043717
    0.056744
    0.055690
    0.068388
    0.067308
    0.079519
    0.078524
    0.090098
    0.089306
    0.100097
    0.099636
    0.109504
    0.109504
    0.118316
    0.118911
    0.126532
    0.127861
    0.134151
    0.136357
    0.141163
    0.144395