# vtk DataFile Version 4.1
Laplace Equation Solution
ASCII
DATASET UNSTRUCTURED_GRID
 
POINTS 121 float
    0.000000    0.000000    0.000000
    0.100000    0.000000    0.000000
    0.200000    0.000000    0.000000
    0.300000    0.000000    0.000000
    0.400000    0.000000    0.000000
    0.500000    0.000000    0.000000
    0.600000    0.000000    0.000000
    0.700000    0.000000    0.000000
    0.800000    0.000000    0.000000
    0.900000    0.000000    0.000000
    1.000000    0.000000    0.000000
    0.000000    0.100000    0.000000
    0.100000    0.100000    0.000000
    0.200000    0.100000    0.000000
    0.300000    0.100000    0.000000
    0.400000    0.100000    0.000000
    0.500000    0.100000    0.000000
    0.600000    0.100000    0.000000
    0.700000    0.100000    0.000000
    0.800000    0.100000    0.000000
    0.900000    0.100000    0.000000
    1.000000    0.100000    0.000000
    0.000000    0.200000    0.000000
    0.100000    0.200000    0.000000
    0.200000    0.200000    0.000000
    0.300000    0.200000    0.000000
    0.400000    0.200000    0.000000
    0.500000    0.200000    0.000000
    0.600000    0.200000    0.000000
    0.700000    0.200000    0.000000
    0.800000    0.200000    0.000000
    0.900000    0.200000    0.000000
    1.000000    0.200000    0.000000
    0.000000    0.300000    0.000000
    0.100000    0.300000    0.000000
    0.200000    0.300000    0.000000
    0.300000    0.300000    0.000000
    0.400000    0.300000    0.000000
    0.500000    0.300000    0.000000
    0.600000    0.300000    0.000000
    0.700000    0.300000    0.000000
    0.800000    0.300000    0.000000
    0.900000    0.300000    0.000000
    1.000000    0.300000    0.000000
    0.000000    0.400000    0.000000
    0.100000    0.400000    0.000000
    0.200000    0.400000    0.000000
    0.300000    0.400000    0.000000
    0.400000    0.400000    0.000000
    0.500000    0.400000    0.000000
    0.600000    0.400000    0.000000
    0.700000    0.400000    0.000000
    0.800000    0.400000    0.000000
    0.900000    0.400000    0.000000
    1.000000    0.400000    0.000000
    0.000000    0.500000    0.000000
    0.100000    0.500000    0.000000
    0.200000    0.500000    0.000000
    0.300000    0.500000    0.000000
    0.400000    0.500000    0.000000
    0.500000    0.500000    0.000000
    0.600000    0.500000    0.000000
    0.700000    0.500000    0.000000
    0.800000    0.500000    0.000000
    0.900000    0.500000    0.000000
    1.000000    0.500000    0.000000
    0.000000    0.600000    0.000000
    0.100000    0.600000    0.000000
    0.200000    0.600000    0.000000
    0.300000    0.600000    0.000000
    0.400000    0.600000    0.000000
    0.500000    0.600000    0.000000
    0.600000    0.600000    0.000000
    0.700000    0.600000    0.000000
    0.800000    0.600000    0.000000
    0.900000    0.600000    0.000000
    1.000000    0.600000    0.000000
    0.000000    0.700000    0.000000
    0.100000    0.700000    0.000000
    0.200000    0.700000    0.000000
    0.300000    0.700000    0.000000
    0.400000    0.700000    0.000000
    0.500000    0.700000    0.000000
    0.600000    0.700000    0.000000
    0.700000    0.700000    0.000000
    0.800000    0.700000    0.000000
    0.900000    0.700000    0.000000
    1.000000    0.700000    0.000000
    0.000000    0.800000    0.000000
    0.100000    0.800000    0.000000
    0.200000    0.800000    0.000000
    0.300000    0.800000    0.000000
    0.400000    0.800000    0.000000
    0.500000    0.800000    0.000000
    0.600000    0.800000    0.000000
    0.700000    0.800000    0.000000
    0.800000    0.800000    0.000000
    0.900000    0.800000    0.000000
    1.000000    0.800000    0.000000
    0.000000    0.900000    0.000000
    0.100000    0.900000    0.000000
    0.200000    0.900000    0.000000
    0.300000    0.900000    0.000000
    0.400000    0.900000    0.000000
    0.500000    0.900000    0.000000
    0.600000    0.900000    0.000000
    0.700000    0.900000    0.000000
    0.800000    0.900000    0.000000
    0.900000    0.900000    0.000000
    1.000000    0.900000    0.000000
    0.000000    1.000000    0.000000
    0.100000    1.000000    0.000000
    0.200000    1.000000    0.000000
    0.300000    1.000000    0.000000
    0.400000    1.000000    0.000000
    0.500000    1.000000    0.000000
    0.600000    1.000000    0.000000
    0.700000    1.000000    0.000000
    0.800000    1.000000    0.000000
    0.900000    1.000000    0.000000
    1.000000    1.000000    0.000000
 
CELLS 200 800
3     0    11    12
3     0     1    12
3     1    12    13
3     1     2    13
3     2    13    14
3     2     3    14
3     3    14    15
3     3     4    15
3     4    15    16
3     4     5    16
3     5    16    17
3     5     6    17
3     6    17    18
3     6     7    18
3     7    18    19
3     7     8    19
3     8    19    20
3     8     9    20
3     9    20    21
3     9    10    21
3    11    22    23
3    11    12    23
3    12    23    24
3    12    13    24
3    13    24    25
3    13    14    25
3    14    25    26
3    14    15    26
3    15    26    27
3    15    16    27
3    16    27    28
3    16    17    28
3    17    28    29
3    17    18    29
3    18    29    30
3    18    19    30
3    19    30    31
3    19    20    31
3    20    31    32
3    20    21    32
3    22    33    34
3    22    23    34
3    23    34    35
3    23    24    35
3    24    35    36
3    24    25    36
3    25    36    37
3    25    26    37
3    26    37    38
3    26    27    38
3    27    38    39
3    27    28    39
3    28    39    40
3    28    29    40
3    29    40    41
3    29    30    41
3    30    41    42
3    30    31    42
3    31    42    43
3    31    32    43
3    33    44    45
3    33    34    45
3    34    45    46
3    34    35    46
3    35    46    47
3    35    36    47
3    36    47    48
3    36    37    48
3    37    48    49
3    37    38    49
3    38    49    50
3    38    39    50
3    39    50    51
3    39    40    51
3    40    51    52
3    40    41    52
3    41    52    53
3    41    42    53
3    42    53    54
3    42    43    54
3    44    55    56
3    44    45    56
3    45    56    57
3    45    46    57
3    46    57    58
3    46    47    58
3    47    58    59
3    47    48    59
3    48    59    60
3    48    49    60
3    49    60    61
3    49    50    61
3    50    61    62
3    50    51    62
3    51    62    63
3    51    52    63
3    52    63    64
3    52    53    64
3    53    64    65
3    53    54    65
3    55    66    67
3    55    56    67
3    56    67    68
3    56    57    68
3    57    68    69
3    57    58    69
3    58    69    70
3    58    59    70
3    59    70    71
3    59    60    71
3    60    71    72
3    60    61    72
3    61    72    73
3    61    62    73
3    62    73    74
3    62    63    74
3    63    74    75
3    63    64    75
3    64    75    76
3    64    65    76
3    66    77    78
3    66    67    78
3    67    78    79
3    67    68    79
3    68    79    80
3    68    69    80
3    69    80    81
3    69    70    81
3    70    81    82
3    70    71    82
3    71    82    83
3    71    72    83
3    72    83    84
3    72    73    84
3    73    84    85
3    73    74    85
3    74    85    86
3    74    75    86
3    75    86    87
3    75    76    87
3    77    88    89
3    77    78    89
3    78    89    90
3    78    79    90
3    79    90    91
3    79    80    91
3    80    91    92
3    80    81    92
3    81    92    93
3    81    82    93
3    82    93    94
3    82    83    94
3    83    94    95
3    83    84    95
3    84    95    96
3    84    85    96
3    85    96    97
3    85    86    97
3    86    97    98
3    86    87    98
3    88    99   100
3    88    89   100
3    89   100   101
3    89    90   101
3    90   101   102
3    90    91   102
3    91   102   103
3    91    92   103
3    92   103   104
3    92    93   104
3    93   104   105
3    93    94   105
3    94   105   106
3    94    95   106
3    95   106   107
3    95    96   107
3    96   107   108
3    96    97   108
3    97   108   109
3    97    98   109
3    99   110   111
3    99   100   111
3   100   111   112
3   100   101   112
3   101   112   113
3   101   102   113
3   102   113   114
3   102   103   114
3   103   114   115
3   103   104   115
3   104   115   116
3   104   105   116
3   105   116   117
3   105   106   117
3   106   117   118
3   106   107   118
3   107   118   119
3   107   108   119
3   108   119   120
3   108   109   120
 
CELL_TYPES 200
5
5
5
5
5
5
5
5
5
5
5
5
5
5
5
5
5
5
5
5
5
5
5
5
5
5
5
5
5
5
5
5
5
5
5
5
5
5
5
5
5
5
5
5
5
5
5
5
5
5
5
5
5
5
5
5
5
5
5
5
5
5
5
5
5
5
5
5
5
5
5
5
5
5
5
5
5
5
5
5
5
5
5
5
5
5
5
5
5
5
5
5
5
5
5
5
5
5
5
5
5
5
5
5
5
5
5
5
5
5
5
5
5
5
5
5
5
5
5
5
5
5
5
5
5
5
5
5
5
5
5
5
5
5
5
5
5
5
5
5
5
5
5
5
5
5
5
5
5
5
5
5
5
5
5
5
5
5
5
5
5
5
5
5
5
5
5
5
5
5
5
5
5
5
5
5
5
5
5
5
5
5
5
5
5
5
5
5
5
5
5
5
5
5
5
5
5
5
5
5
 
POINT_DATA 121
SCALARS Solution float 1
LOOKUP_TABLE default
    0.000000
    0.000000
    0.000000
    0.000000
    0.000000
    0.000000
    0.000000
    0.000000
    0.000000
    0.000000
    0.000000
    0.042929
    0.042542
    0.041446
    0.039812
    0.037869
    0.035847
    0.033947
    0.032328
    0.031101
    0.030339
    0.030081
    0.086632
    0.085793
    0.083429
    0.079935
    0.075816
    0.071570
    0.067614
    0.064264
    0.061739
    0.060174
    0.059645
    0.132013
    0.130569
    0.126542
    0.120682
    0.113892
    0.107003
    0.100675
    0.095376
    0.091414
    0.088974
    0.088150
    0.180283
    0.177928
    0.171488
    0.162360
    0.152065
    0.141876
    0.132706
    0.125152
    0.119569
    0.116156
    0.115009
    0.233263
    0.229371
    0.219122
    0.205204
    0.190134
    0.175728
    0.163122
    0.152955
    0.145554
    0.141073
    0.139574
    0.294028
    0.287173
    0.270423
    0.249201
    0.227538
    0.207782
    0.191100
    0.177991
    0.168619
    0.163007
    0.161140
    0.368502
    0.354868
    0.326199
    0.293637
    0.263035
    0.236760
    0.215506
    0.199291
    0.187923
    0.181198
    0.178972
    0.470243
    0.437600
    0.385867
    0.336114
    0.294204
    0.260719
    0.234873
    0.215743
    0.202585
    0.194888
    0.192354
    0.637271
    0.539420
    0.443555
    0.370748
    0.316950
    0.277038
    0.247523
    0.226222
    0.211788
    0.203414
    0.200668
    1.000000
    0.639256
    0.478184
    0.386372
    0.325808
    0.282961
    0.251960
    0.229834
    0.214930
    0.206312
    0.203490
