# vtk DataFile Version 4.1
Laplace Equation Solution with Fluxes
ASCII
DATASET UNSTRUCTURED_GRID
 
POINTS 36 float
    0.000000    0.000000    0.000000
    0.100000    0.000000    0.000000
    0.200000    0.000000    0.000000
    0.300000    0.000000    0.000000
    0.400000    0.000000    0.000000
    0.500000    0.000000    0.000000
    0.000000    0.100000    0.000000
    0.100000    0.100000    0.000000
    0.200000    0.100000    0.000000
    0.300000    0.100000    0.000000
    0.400000    0.100000    0.000000
    0.500000    0.100000    0.000000
    0.000000    0.200000    0.000000
    0.100000    0.200000    0.000000
    0.200000    0.200000    0.000000
    0.300000    0.200000    0.000000
    0.400000    0.200000    0.000000
    0.500000    0.200000    0.000000
    0.000000    0.300000    0.000000
    0.100000    0.300000    0.000000
    0.200000    0.300000    0.000000
    0.300000    0.300000    0.000000
    0.400000    0.300000    0.000000
    0.500000    0.300000    0.000000
    0.000000    0.400000    0.000000
    0.100000    0.400000    0.000000
    0.200000    0.400000    0.000000
    0.300000    0.400000    0.000000
    0.400000    0.400000    0.000000
    0.500000    0.400000    0.000000
    0.000000    0.500000    0.000000
    0.100000    0.500000    0.000000
    0.200000    0.500000    0.000000
    0.300000    0.500000    0.000000
    0.400000    0.500000    0.000000
    0.500000    0.500000    0.000000
 
CELLS 50 200
3     0     6     7
3     0     1     7
3     1     7     8
3     1     2     8
3     2     8     9
3     2     3     9
3     3     9    10
3     3     4    10
3     4    10    11
3     4     5    11
3     6    12    13
3     6     7    13
3     7    13    14
3     7     8    14
3     8    14    15
3     8     9    15
3     9    15    16
3     9    10    16
3    10    16    17
3    10    11    17
3    12    18    19
3    12    13    19
3    13    19    20
3    13    14    20
3    14    20    21
3    14    15    21
3    15    21    22
3    15    16    22
3    16    22    23
3    16    17    23
3    18    24    25
3    18    19    25
3    19    25    26
3    19    20    26
3    20    26    27
3    20    21    27
3    21    27    28
3    21    22    28
3    22    28    29
3    22    23    29
3    24    30    31
3    24    25    31
3    25    31    32
3    25    26    32
3    26    32    33
3    26    27    33
3    27    33    34
3    27    28    34
3    28    34    35
3    28    29    35
 
CELL_TYPES 50
5
5
5
5
5
5
5
5
5
5
5
5
5
5
5
5
5
5
5
5
5
5
5
5
5
5
5
5
5
5
5
5
5
5
5
5
5
5
5
5
5
5
5
5
5
5
5
5
5
5
 
POINT_DATA 36
SCALARS Solution float 1
LOOKUP_TABLE default
    0.074848
    0.071515
    0.063422
    0.049625
    0.028972
    0.001667
    0.071515
    0.068894
    0.061274
    0.048053
    0.028132
    0.005000
    0.063422
    0.061274
    0.054727
    0.043180
    0.025502
    0.005000
    0.049625
    0.048053
    0.043180
    0.034439
    0.020698
    0.005000
    0.028972
    0.028132
    0.025502
    0.020698
    0.012849
    0.005000
    0.001667
    0.005000
    0.005000
    0.005000
    0.005000
    0.003333
 
CELL_DATA 50
SCALARS Flux_X float 1
LOOKUP_TABLE default
    0.026203
    0.033333
    0.076203
    0.080927
    0.132213
    0.137970
    0.199210
    0.206528
    0.231318
    0.273055
    0.021479
    0.026203
    0.065469
    0.076203
    0.115469
    0.132213
    0.176779
    0.199210
    0.205024
    0.231318
    0.015721
    0.021479
    0.048725
    0.065469
    0.087414
    0.115469
    0.137414
    0.176779
    0.156975
    0.205024
    0.008403
    0.015721
    0.026294
    0.048725
    0.048049
    0.087414
    0.078488
    0.137414
    0.078488
    0.156975
    0.033333
    0.008403
    0.000000
    0.026294
    0.000000
    0.048049
    0.000000
    0.078488
    0.016667
    0.078488
 
SCALARS Flux_Y float 1
LOOKUP_TABLE default
    0.033333
    0.026203
    0.026203
    0.021479
    0.021479
    0.015721
    0.015721
    0.008403
    0.008403
    0.033333
    0.080927
    0.076203
    0.076203
    0.065469
    0.065469
    0.048725
    0.048725
    0.026294
    0.026294
    0.000000
    0.137970
    0.132213
    0.132213
    0.115469
    0.115469
    0.087414
    0.087414
    0.048049
    0.048049
    0.000000
    0.206528
    0.199210
    0.199210
    0.176779
    0.176779
    0.137414
    0.137414
    0.078488
    0.078488
    0.000000
    0.273055
    0.231318
    0.231318
    0.205024
    0.205024
    0.156975
    0.156975
    0.078488
    0.078488
    0.016667
