# vtk DataFile Version 4.1
Laplace Equation Solution with Fluxes
ASCII
DATASET UNSTRUCTURED_GRID
 
POINTS 36 float
    0.000000    0.000000    0.000000
    0.200000    0.000000    0.000000
    0.400000    0.000000    0.000000
    0.600000    0.000000    0.000000
    0.800000    0.000000    0.000000
    1.000000    0.000000    0.000000
    0.000000    0.200000    0.000000
    0.200000    0.200000    0.000000
    0.400000    0.200000    0.000000
    0.600000    0.200000    0.000000
    0.800000    0.200000    0.000000
    1.000000    0.200000    0.000000
    0.000000    0.400000    0.000000
    0.200000    0.400000    0.000000
    0.400000    0.400000    0.000000
    0.600000    0.400000    0.000000
    0.800000    0.400000    0.000000
    1.000000    0.400000    0.000000
    0.000000    0.600000    0.000000
    0.200000    0.600000    0.000000
    0.400000    0.600000    0.000000
    0.600000    0.600000    0.000000
    0.800000    0.600000    0.000000
    1.000000    0.600000    0.000000
    0.000000    0.800000    0.000000
    0.200000    0.800000    0.000000
    0.400000    0.800000    0.000000
    0.600000    0.800000    0.000000
    0.800000    0.800000    0.000000
    1.000000    0.800000    0.000000
    0.000000    1.000000    0.000000
    0.200000    1.000000    0.000000
    0.400000    1.000000    0.000000
    0.600000    1.000000    0.000000
    0.800000    1.000000    0.000000
    1.000000    1.000000    0.000000
 
CELLS 50 200
3     0     6     7
3     0     1     7
3     1     7     8
3     1     2     8
3     2     8     9
3     2     3     9
3     3     9    10
3     3     4    10
3     4    10    11
3     4     5    11
3     6    12    13
3     6     7    13
3     7    13    14
3     7     8    14
3     8    14    15
3     8     9    15
3     9    15    16
3     9    10    16
3    10    16    17
3    10    11    17
3    12    18    19
3    12    13    19
3    13    19    20
3    13    14    20
3    14    20    21
3    14    15    21
3    15    21    22
3    15    16    22
3    16    22    23
3    16    17    23
3    18    24    25
3    18    19    25
3    19    25    26
3    19    20    26
3    20    26    27
3    20    21    27
3    21    27    28
3    21    22    28
3    22    28    29
3    22    23    29
3    24    30    31
3    24    25    31
3    25    31    32
3    25    26    32
3    26    32    33
3    26    27    33
3    27    33    34
3    27    28    34
3    28    34    35
3    28    29    35
 
CELL_TYPES 50
5
5
5
5
5
5
5
5
5
5
5
5
5
5
5
5
5
5
5
5
5
5
5
5
5
5
5
5
5
5
5
5
5
5
5
5
5
5
5
5
5
5
5
5
5
5
5
5
5
5
 
POINT_DATA 36
SCALARS Solution float 1
LOOKUP_TABLE default
    0.500000
    0.487662
    0.450646
    0.384254
    0.264982
    0.000000
    0.512338
    0.500000
    0.465335
    0.410693
    0.337838
    0.264982
    0.549354
    0.534665
    0.500000
    0.455347
    0.410693
    0.384254
    0.615746
    0.589307
    0.544653
    0.500000
    0.465335
    0.450646
    0.735018
    0.662162
    0.589307
    0.534665
    0.500000
    0.487662
    1.000000
    0.735018
    0.615746
    0.549354
    0.512338
    0.500000
 
CELL_DATA 50
SCALARS Flux_X float 1
LOOKUP_TABLE default
    0.061692
    0.061692
    0.173325
    0.185076
    0.273208
    0.331962
    0.364277
    0.596357
    0.364277
    1.324912
    0.073443
    0.061692
    0.173325
    0.173325
    0.223267
    0.273208
    0.223267
    0.364277
    0.132197
    0.364277
    0.132197
    0.073443
    0.223267
    0.173325
    0.223267
    0.223267
    0.173325
    0.223267
    0.073443
    0.132197
    0.364277
    0.132197
    0.364277
    0.223267
    0.273208
    0.223267
    0.173325
    0.173325
    0.061692
    0.073443
    1.324912
    0.364277
    0.596357
    0.364277
    0.331962
    0.273208
    0.185076
    0.173325
    0.061692
    0.061692
 
SCALARS Flux_Y float 1
LOOKUP_TABLE default
    0.061692
    0.061692
    0.061692
    0.073443
    0.073443
    0.132197
    0.132197
    0.364277
    0.364277
    1.324912
    0.185076
    0.173325
    0.173325
    0.173325
    0.173325
    0.223267
    0.223267
    0.364277
    0.364277
    0.596357
    0.331962
    0.273208
    0.273208
    0.223267
    0.223267
    0.223267
    0.223267
    0.273208
    0.273208
    0.331962
    0.596357
    0.364277
    0.364277
    0.223267
    0.223267
    0.173325
    0.173325
    0.173325
    0.173325
    0.185076
    1.324912
    0.364277
    0.364277
    0.132197
    0.132197
    0.073443
    0.073443
    0.061692
    0.061692
    0.061692
