# vtk DataFile Version 4.1
Laplace Equation Solution with Fluxes
ASCII
DATASET UNSTRUCTURED_GRID
 
POINTS 16 float
    0.000000    0.000000    0.000000
    0.166667    0.000000    0.000000
    0.333333    0.000000    0.000000
    0.500000    0.000000    0.000000
    0.000000    0.166667    0.000000
    0.166667    0.166667    0.000000
    0.333333    0.166667    0.000000
    0.500000    0.166667    0.000000
    0.000000    0.333333    0.000000
    0.166667    0.333333    0.000000
    0.333333    0.333333    0.000000
    0.500000    0.333333    0.000000
    0.000000    0.500000    0.000000
    0.166667    0.500000    0.000000
    0.333333    0.500000    0.000000
    0.500000    0.500000    0.000000
 
CELLS 18 72
3     0     4     5
3     0     1     5
3     1     5     6
3     1     2     6
3     2     6     7
3     2     3     7
3     4     8     9
3     4     5     9
3     5     9    10
3     5     6    10
3     6    10    11
3     6     7    11
3     8    12    13
3     8     9    13
3     9    13    14
3     9    10    14
3    10    14    15
3    10    11    15
 
CELL_TYPES 18
5
5
5
5
5
5
5
5
5
5
5
5
5
5
5
5
5
5
 
POINT_DATA 16
SCALARS Solution float 1
LOOKUP_TABLE default
    0.076211
    0.066952
    0.043447
    0.000000
    0.066952
    0.060185
    0.039530
    0.000000
    0.043447
    0.039530
    0.026709
    0.000000
    0.000000
    0.000000
    0.000000
    0.000000
 
CELL_DATA 18
SCALARS Flux_X float 1
LOOKUP_TABLE default
    0.040598
    0.055555
    0.123932
    0.141026
    0.237179
    0.260684
    0.023504
    0.040598
    0.076923
    0.123932
    0.160257
    0.237179
    0.000000
    0.023504
    0.000000
    0.076923
    0.000000
    0.160257
 
SCALARS Flux_Y float 1
LOOKUP_TABLE default
    0.055555
    0.040598
    0.040598
    0.023504
    0.023504
    0.000000
    0.141026
    0.123932
    0.123932
    0.076923
    0.076923
    0.000000
    0.260684
    0.237179
    0.237179
    0.160257
    0.160257
    0.000000
