# vtk DataFile Version 4.1
Laplace Equation Solution with Fluxes
ASCII
DATASET UNSTRUCTURED_GRID
 
POINTS 4 float
    0.000000    0.000000    0.000000
    1.000000    0.000000    0.000000
    0.000000    1.000000    0.000000
    1.000000    1.000000    0.000000
 
CELLS 2 8
3     0     2     3
3     0     1     3
 
CELL_TYPES 2
5
5
 
POINT_DATA 4
SCALARS Solution float 1
LOOKUP_TABLE default
    0.000000
    0.000000
    1.000000
    0.500000
 
CELL_DATA 2
SCALARS Flux_X float 1
LOOKUP_TABLE default
    0.500000
    0.000000
 
SCALARS Flux_Y float 1
LOOKUP_TABLE default
    1.000000
    0.500000
