# vtk DataFile Version 4.1
Laplace Equation Solution with Fluxes
ASCII
DATASET UNSTRUCTURED_GRID
 
POINTS 9 float
    0.000000    0.000000    0.000000
    0.250000    0.000000    0.000000
    0.500000    0.000000    0.000000
    0.000000    0.250000    0.000000
    0.250000    0.250000    0.000000
    0.500000    0.250000    0.000000
    0.000000    0.500000    0.000000
    0.250000    0.500000    0.000000
    0.500000    0.500000    0.000000
 
CELLS 8 32
3     0     3     4
3     0     1     4
3     1     4     5
3     1     2     5
3     3     6     7
3     3     4     7
3     4     7     8
3     4     5     8
 
CELL_TYPES 8
5
5
5
5
5
5
5
5
 
POINT_DATA 9
SCALARS Solution float 1
LOOKUP_TABLE default
    0.078125
    0.057292
    0.010417
    0.057292
    0.044271
    0.031250
    0.010417
    0.031250
    0.020833
 
CELL_DATA 8
SCALARS Flux_X float 1
LOOKUP_TABLE default
    0.052083
    0.083333
    0.052083
    0.187500
    0.083333
    0.052083
    0.041667
    0.052083
 
SCALARS Flux_Y float 1
LOOKUP_TABLE default
    0.083333
    0.052083
    0.052083
    0.083333
    0.187500
    0.052083
    0.052083
    0.041667
