# vtk DataFile Version 4.1
Laplace Equation Solution with Fluxes
ASCII
DATASET UNSTRUCTURED_GRID
 
POINTS 36 float
    0.000000    0.000000    0.000000
    0.200000    0.000000    0.000000
    0.400000    0.000000    0.000000
    0.600000    0.000000    0.000000
    0.800000    0.000000    0.000000
    1.000000    0.000000    0.000000
    0.000000    0.200000    0.000000
    0.200000    0.200000    0.000000
    0.400000    0.200000    0.000000
    0.600000    0.200000    0.000000
    0.800000    0.200000    0.000000
    1.000000    0.200000    0.000000
    0.000000    0.400000    0.000000
    0.200000    0.400000    0.000000
    0.400000    0.400000    0.000000
    0.600000    0.400000    0.000000
    0.800000    0.400000    0.000000
    1.000000    0.400000    0.000000
    0.000000    0.600000    0.000000
    0.200000    0.600000    0.000000
    0.400000    0.600000    0.000000
    0.600000    0.600000    0.000000
    0.800000    0.600000    0.000000
    1.000000    0.600000    0.000000
    0.000000    0.800000    0.000000
    0.200000    0.800000    0.000000
    0.400000    0.800000    0.000000
    0.600000    0.800000    0.000000
    0.800000    0.800000    0.000000
    1.000000    0.800000    0.000000
    0.000000    1.000000    0.000000
    0.200000    1.000000    0.000000
    0.400000    1.000000    0.000000
    0.600000    1.000000    0.000000
    0.800000    1.000000    0.000000
    1.000000    1.000000    0.000000
 
CELLS 50 200
3     0     6     7
3     0     1     7
3     1     7     8
3     1     2     8
3     2     8     9
3     2     3     9
3     3     9    10
3     3     4    10
3     4    10    11
3     4     5    11
3     6    12    13
3     6     7    13
3     7    13    14
3     7     8    14
3     8    14    15
3     8     9    15
3     9    15    16
3     9    10    16
3    10    16    17
3    10    11    17
3    12    18    19
3    12    13    19
3    13    19    20
3    13    14    20
3    14    20    21
3    14    15    21
3    15    21    22
3    15    16    22
3    16    22    23
3    16    17    23
3    18    24    25
3    18    19    25
3    19    25    26
3    19    20    26
3    20    26    27
3    20    21    27
3    21    27    28
3    21    22    28
3    22    28    29
3    22    23    29
3    24    30    31
3    24    25    31
3    25    31    32
3    25    26    32
3    26    32    33
3    26    27    33
3    27    33    34
3    27    28    34
3    28    34    35
3    28    29    35
 
CELL_TYPES 50
5
5
5
5
5
5
5
5
5
5
5
5
5
5
5
5
5
5
5
5
5
5
5
5
5
5
5
5
5
5
5
5
5
5
5
5
5
5
5
5
5
5
5
5
5
5
5
5
5
5
 
POINT_DATA 36
SCALARS Solution float 1
LOOKUP_TABLE default
    0.000000
    0.000000
    0.000000
    0.000000
    0.000000
    0.000000
    0.104035
    0.099553
    0.089944
    0.080111
    0.073233
    0.070804
    0.217032
    0.204235
    0.180110
    0.157268
    0.142019
    0.136748
    0.355622
    0.320244
    0.268993
    0.226832
    0.200826
    0.192151
    0.564969
    0.452127
    0.348786
    0.280242
    0.242300
    0.230205
    1.000000
    0.574509
    0.393783
    0.303049
    0.257929
    0.244067
 
CELL_DATA 50
SCALARS Flux_X float 1
LOOKUP_TABLE default
   -0.022406
   -0.000000
   -0.048048
   -0.000000
   -0.049162
   -0.000000
   -0.034389
   -0.000000
   -0.012149
   -0.000000
   -0.063984
    0.022406
   -0.120625
    0.048048
   -0.114209
    0.049162
   -0.076246
    0.034389
   -0.026354
    0.012149
   -0.176890
    0.063984
   -0.256256
    0.120625
   -0.210805
    0.114209
   -0.130033
    0.076246
   -0.043373
    0.026354
   -0.564210
    0.176890
   -0.516705
    0.256256
   -0.342722
    0.210805
   -0.189708
    0.130033
   -0.060479
    0.043373
   -2.127453
    0.564210
   -0.903633
    0.516705
   -0.453669
    0.342722
   -0.225599
    0.189708
   -0.069311
    0.060479
 
SCALARS Flux_Y float 1
LOOKUP_TABLE default
    0.520173
   -0.497766
    0.497766
   -0.449718
    0.449718
   -0.400556
    0.400556
   -0.366167
    0.366167
   -0.354019
    0.564986
   -0.523408
    0.523408
   -0.450832
    0.450832
   -0.385784
    0.385784
   -0.343927
    0.343927
   -0.329722
    0.692954
   -0.580048
    0.580048
   -0.444416
    0.444416
   -0.347821
    0.347821
   -0.294034
    0.294034
   -0.277014
    1.046734
   -0.659414
    0.659414
   -0.398965
    0.398965
   -0.267049
    0.267049
   -0.207374
    0.207374
   -0.190268
    2.175154
   -0.611910
    0.611910
   -0.224982
    0.224982
   -0.114035
    0.114035
   -0.078144
    0.078144
   -0.069311
