# vtk DataFile Version 4.1
Laplace Equation Solution with Fluxes
ASCII
DATASET UNSTRUCTURED_GRID
 
POINTS 121 float
    0.000000    0.000000    0.000000
    0.100000    0.000000    0.000000
    0.200000    0.000000    0.000000
    0.300000    0.000000    0.000000
    0.400000    0.000000    0.000000
    0.500000    0.000000    0.000000
    0.600000    0.000000    0.000000
    0.700000    0.000000    0.000000
    0.800000    0.000000    0.000000
    0.900000    0.000000    0.000000
    1.000000    0.000000    0.000000
    0.000000    0.100000    0.000000
    0.100000    0.100000    0.000000
    0.200000    0.100000    0.000000
    0.300000    0.100000    0.000000
    0.400000    0.100000    0.000000
    0.500000    0.100000    0.000000
    0.600000    0.100000    0.000000
    0.700000    0.100000    0.000000
    0.800000    0.100000    0.000000
    0.900000    0.100000    0.000000
    1.000000    0.100000    0.000000
    0.000000    0.200000    0.000000
    0.100000    0.200000    0.000000
    0.200000    0.200000    0.000000
    0.300000    0.200000    0.000000
    0.400000    0.200000    0.000000
    0.500000    0.200000    0.000000
    0.600000    0.200000    0.000000
    0.700000    0.200000    0.000000
    0.800000    0.200000    0.000000
    0.900000    0.200000    0.000000
    1.000000    0.200000    0.000000
    0.000000    0.300000    0.000000
    0.100000    0.300000    0.000000
    0.200000    0.300000    0.000000
    0.300000    0.300000    0.000000
    0.400000    0.300000    0.000000
    0.500000    0.300000    0.000000
    0.600000    0.300000    0.000000
    0.700000    0.300000    0.000000
    0.800000    0.300000    0.000000
    0.900000    0.300000    0.000000
    1.000000    0.300000    0.000000
    0.000000    0.400000    0.000000
    0.100000    0.400000    0.000000
    0.200000    0.400000    0.000000
    0.300000    0.400000    0.000000
    0.400000    0.400000    0.000000
    0.500000    0.400000    0.000000
    0.600000    0.400000    0.000000
    0.700000    0.400000    0.000000
    0.800000    0.400000    0.000000
    0.900000    0.400000    0.000000
    1.000000    0.400000    0.000000
    0.000000    0.500000    0.000000
    0.100000    0.500000    0.000000
    0.200000    0.500000    0.000000
    0.300000    0.500000    0.000000
    0.400000    0.500000    0.000000
    0.500000    0.500000    0.000000
    0.600000    0.500000    0.000000
    0.700000    0.500000    0.000000
    0.800000    0.500000    0.000000
    0.900000    0.500000    0.000000
    1.000000    0.500000    0.000000
    0.000000    0.600000    0.000000
    0.100000    0.600000    0.000000
    0.200000    0.600000    0.000000
    0.300000    0.600000    0.000000
    0.400000    0.600000    0.000000
    0.500000    0.600000    0.000000
    0.600000    0.600000    0.000000
    0.700000    0.600000    0.000000
    0.800000    0.600000    0.000000
    0.900000    0.600000    0.000000
    1.000000    0.600000    0.000000
    0.000000    0.700000    0.000000
    0.100000    0.700000    0.000000
    0.200000    0.700000    0.000000
    0.300000    0.700000    0.000000
    0.400000    0.700000    0.000000
    0.500000    0.700000    0.000000
    0.600000    0.700000    0.000000
    0.700000    0.700000    0.000000
    0.800000    0.700000    0.000000
    0.900000    0.700000    0.000000
    1.000000    0.700000    0.000000
    0.000000    0.800000    0.000000
    0.100000    0.800000    0.000000
    0.200000    0.800000    0.000000
    0.300000    0.800000    0.000000
    0.400000    0.800000    0.000000
    0.500000    0.800000    0.000000
    0.600000    0.800000    0.000000
    0.700000    0.800000    0.000000
    0.800000    0.800000    0.000000
    0.900000    0.800000    0.000000
    1.000000    0.800000    0.000000
    0.000000    0.900000    0.000000
    0.100000    0.900000    0.000000
    0.200000    0.900000    0.000000
    0.300000    0.900000    0.000000
    0.400000    0.900000    0.000000
    0.500000    0.900000    0.000000
    0.600000    0.900000    0.000000
    0.700000    0.900000    0.000000
    0.800000    0.900000    0.000000
    0.900000    0.900000    0.000000
    1.000000    0.900000    0.000000
    0.000000    1.000000    0.000000
    0.100000    1.000000    0.000000
    0.200000    1.000000    0.000000
    0.300000    1.000000    0.000000
    0.400000    1.000000    0.000000
    0.500000    1.000000    0.000000
    0.600000    1.000000    0.000000
    0.700000    1.000000    0.000000
    0.800000    1.000000    0.000000
    0.900000    1.000000    0.000000
    1.000000    1.000000    0.000000
 
CELLS 200 800
3     0    11    12
3     0     1    12
3     1    12    13
3     1     2    13
3     2    13    14
3     2     3    14
3     3    14    15
3     3     4    15
3     4    15    16
3     4     5    16
3     5    16    17
3     5     6    17
3     6    17    18
3     6     7    18
3     7    18    19
3     7     8    19
3     8    19    20
3     8     9    20
3     9    20    21
3     9    10    21
3    11    22    23
3    11    12    23
3    12    23    24
3    12    13    24
3    13    24    25
3    13    14    25
3    14    25    26
3    14    15    26
3    15    26    27
3    15    16    27
3    16    27    28
3    16    17    28
3    17    28    29
3    17    18    29
3    18    29    30
3    18    19    30
3    19    30    31
3    19    20    31
3    20    31    32
3    20    21    32
3    22    33    34
3    22    23    34
3    23    34    35
3    23    24    35
3    24    35    36
3    24    25    36
3    25    36    37
3    25    26    37
3    26    37    38
3    26    27    38
3    27    38    39
3    27    28    39
3    28    39    40
3    28    29    40
3    29    40    41
3    29    30    41
3    30    41    42
3    30    31    42
3    31    42    43
3    31    32    43
3    33    44    45
3    33    34    45
3    34    45    46
3    34    35    46
3    35    46    47
3    35    36    47
3    36    47    48
3    36    37    48
3    37    48    49
3    37    38    49
3    38    49    50
3    38    39    50
3    39    50    51
3    39    40    51
3    40    51    52
3    40    41    52
3    41    52    53
3    41    42    53
3    42    53    54
3    42    43    54
3    44    55    56
3    44    45    56
3    45    56    57
3    45    46    57
3    46    57    58
3    46    47    58
3    47    58    59
3    47    48    59
3    48    59    60
3    48    49    60
3    49    60    61
3    49    50    61
3    50    61    62
3    50    51    62
3    51    62    63
3    51    52    63
3    52    63    64
3    52    53    64
3    53    64    65
3    53    54    65
3    55    66    67
3    55    56    67
3    56    67    68
3    56    57    68
3    57    68    69
3    57    58    69
3    58    69    70
3    58    59    70
3    59    70    71
3    59    60    71
3    60    71    72
3    60    61    72
3    61    72    73
3    61    62    73
3    62    73    74
3    62    63    74
3    63    74    75
3    63    64    75
3    64    75    76
3    64    65    76
3    66    77    78
3    66    67    78
3    67    78    79
3    67    68    79
3    68    79    80
3    68    69    80
3    69    80    81
3    69    70    81
3    70    81    82
3    70    71    82
3    71    82    83
3    71    72    83
3    72    83    84
3    72    73    84
3    73    84    85
3    73    74    85
3    74    85    86
3    74    75    86
3    75    86    87
3    75    76    87
3    77    88    89
3    77    78    89
3    78    89    90
3    78    79    90
3    79    90    91
3    79    80    91
3    80    91    92
3    80    81    92
3    81    92    93
3    81    82    93
3    82    93    94
3    82    83    94
3    83    94    95
3    83    84    95
3    84    95    96
3    84    85    96
3    85    96    97
3    85    86    97
3    86    97    98
3    86    87    98
3    88    99   100
3    88    89   100
3    89   100   101
3    89    90   101
3    90   101   102
3    90    91   102
3    91   102   103
3    91    92   103
3    92   103   104
3    92    93   104
3    93   104   105
3    93    94   105
3    94   105   106
3    94    95   106
3    95   106   107
3    95    96   107
3    96   107   108
3    96    97   108
3    97   108   109
3    97    98   109
3    99   110   111
3    99   100   111
3   100   111   112
3   100   101   112
3   101   112   113
3   101   102   113
3   102   113   114
3   102   103   114
3   103   114   115
3   103   104   115
3   104   115   116
3   104   105   116
3   105   116   117
3   105   106   117
3   106   117   118
3   106   107   118
3   107   118   119
3   107   108   119
3   108   119   120
3   108   109   120
 
CELL_TYPES 200
5
5
5
5
5
5
5
5
5
5
5
5
5
5
5
5
5
5
5
5
5
5
5
5
5
5
5
5
5
5
5
5
5
5
5
5
5
5
5
5
5
5
5
5
5
5
5
5
5
5
5
5
5
5
5
5
5
5
5
5
5
5
5
5
5
5
5
5
5
5
5
5
5
5
5
5
5
5
5
5
5
5
5
5
5
5
5
5
5
5
5
5
5
5
5
5
5
5
5
5
5
5
5
5
5
5
5
5
5
5
5
5
5
5
5
5
5
5
5
5
5
5
5
5
5
5
5
5
5
5
5
5
5
5
5
5
5
5
5
5
5
5
5
5
5
5
5
5
5
5
5
5
5
5
5
5
5
5
5
5
5
5
5
5
5
5
5
5
5
5
5
5
5
5
5
5
5
5
5
5
5
5
5
5
5
5
5
5
5
5
5
5
5
5
5
5
5
5
5
5
 
POINT_DATA 121
SCALARS Solution float 1
LOOKUP_TABLE default
    0.000000
    0.000000
    0.000000
    0.000000
    0.000000
    0.000000
    0.000000
    0.000000
    0.000000
    0.000000
    0.000000
    0.042929
    0.042542
    0.041446
    0.039812
    0.037869
    0.035847
    0.033947
    0.032328
    0.031101
    0.030339
    0.030081
    0.086632
    0.085793
    0.083429
    0.079935
    0.075816
    0.071570
    0.067614
    0.064264
    0.061739
    0.060174
    0.059645
    0.132013
    0.130569
    0.126542
    0.120682
    0.113892
    0.107003
    0.100675
    0.095376
    0.091414
    0.088974
    0.088150
    0.180283
    0.177928
    0.171488
    0.162360
    0.152065
    0.141876
    0.132706
    0.125152
    0.119569
    0.116156
    0.115009
    0.233263
    0.229371
    0.219122
    0.205204
    0.190134
    0.175728
    0.163122
    0.152955
    0.145554
    0.141073
    0.139574
    0.294028
    0.287173
    0.270423
    0.249201
    0.227538
    0.207782
    0.191100
    0.177991
    0.168619
    0.163007
    0.161140
    0.368502
    0.354868
    0.326199
    0.293637
    0.263035
    0.236760
    0.215506
    0.199291
    0.187923
    0.181198
    0.178972
    0.470243
    0.437600
    0.385867
    0.336114
    0.294204
    0.260719
    0.234873
    0.215743
    0.202585
    0.194888
    0.192354
    0.637271
    0.539420
    0.443555
    0.370748
    0.316950
    0.277038
    0.247523
    0.226222
    0.211788
    0.203414
    0.200668
    1.000000
    0.639256
    0.478184
    0.386372
    0.325808
    0.282961
    0.251960
    0.229834
    0.214930
    0.206312
    0.203490
 
CELL_DATA 200
SCALARS Flux_X float 1
LOOKUP_TABLE default
   -0.003870
   -0.000000
   -0.010961
   -0.000000
   -0.016334
   -0.000000
   -0.019436
   -0.000000
   -0.020223
   -0.000000
   -0.018993
   -0.000000
   -0.016190
   -0.000000
   -0.012268
   -0.000000
   -0.007624
   -0.000000
   -0.002583
   -0.000000
   -0.008391
    0.003870
   -0.023641
    0.010961
   -0.034940
    0.016334
   -0.041186
    0.019436
   -0.042464
    0.020223
   -0.039559
    0.018993
   -0.033498
    0.016190
   -0.025258
    0.012268
   -0.015645
    0.007624
   -0.005293
    0.002583
   -0.014443
    0.008391
   -0.040271
    0.023641
   -0.058599
    0.034940
   -0.067904
    0.041186
   -0.068886
    0.042464
   -0.063282
    0.039559
   -0.052986
    0.033498
   -0.039619
    0.025258
   -0.024407
    0.015645
   -0.008234
    0.005293
   -0.023553
    0.014443
   -0.064400
    0.040271
   -0.091280
    0.058599
   -0.102945
    0.067904
   -0.101895
    0.068886
   -0.091696
    0.063282
   -0.075546
    0.052986
   -0.055826
    0.039619
   -0.034128
    0.024407
   -0.011471
    0.008234
   -0.038920
    0.023553
   -0.102497
    0.064400
   -0.139177
    0.091280
   -0.150701
    0.102945
   -0.144054
    0.101895
   -0.126060
    0.091696
   -0.101677
    0.075546
   -0.074009
    0.055826
   -0.044811
    0.034128
   -0.014991
    0.011471
   -0.068549
    0.038920
   -0.167492
    0.102497
   -0.212229
    0.139177
   -0.216628
    0.150701
   -0.197560
    0.144054
   -0.166814
    0.126060
   -0.131092
    0.101677
   -0.093723
    0.074009
   -0.056115
    0.044811
   -0.018672
    0.014991
   -0.136335
    0.068549
   -0.286693
    0.167492
   -0.325618
    0.212229
   -0.306022
    0.216628
   -0.262745
    0.197560
   -0.212543
    0.166814
   -0.162153
    0.131092
   -0.113676
    0.093723
   -0.067255
    0.056115
   -0.022253
    0.018672
   -0.326434
    0.136335
   -0.517328
    0.286693
   -0.497529
    0.325618
   -0.419096
    0.306022
   -0.334854
    0.262745
   -0.258462
    0.212543
   -0.191301
    0.162153
   -0.131573
    0.113676
   -0.076977
    0.067255
   -0.025338
    0.022253
   -0.978505
    0.326434
   -0.958656
    0.517328
   -0.728073
    0.497529
   -0.537980
    0.419096
   -0.399113
    0.334854
   -0.295150
    0.258462
   -0.213015
    0.191301
   -0.144340
    0.131573
   -0.083740
    0.076977
   -0.027460
    0.025338
   -3.607437
    0.978505
   -1.610719
    0.958656
   -0.918126
    0.728073
   -0.605638
    0.537980
   -0.428468
    0.399113
   -0.310009
    0.295150
   -0.221268
    0.213015
   -0.149033
    0.144340
   -0.086183
    0.083740
   -0.028221
    0.027460
 
SCALARS Flux_Y float 1
LOOKUP_TABLE default
    0.429290
   -0.425420
    0.425420
   -0.414458
    0.414458
   -0.398124
    0.398124
   -0.378688
    0.378688
   -0.358465
    0.358465
   -0.339472
    0.339472
   -0.323282
    0.323282
   -0.311015
    0.311015
   -0.303390
    0.303390
   -0.300807
    0.437031
   -0.432510
    0.432510
   -0.419831
    0.419831
   -0.401226
    0.401226
   -0.379476
    0.379476
   -0.357235
    0.357235
   -0.336669
    0.336669
   -0.319361
    0.319361
   -0.306371
    0.306371
   -0.298350
    0.298350
   -0.295640
    0.453812
   -0.447760
    0.447760
   -0.431130
    0.431130
   -0.407472
    0.407472
   -0.380753
    0.380753
   -0.354331
    0.354331
   -0.330608
    0.330608
   -0.311120
    0.311120
   -0.296758
    0.296758
   -0.287997
    0.287997
   -0.285055
    0.482698
   -0.473588
    0.473588
   -0.449458
    0.449458
   -0.416777
    0.416777
   -0.381736
    0.381736
   -0.348726
    0.348726
   -0.320312
    0.320312
   -0.297753
    0.297753
   -0.281546
    0.281546
   -0.271824
    0.271824
   -0.268588
    0.529803
   -0.514436
    0.514436
   -0.476338
    0.476338
   -0.428442
    0.428442
   -0.380686
    0.380686
   -0.338527
    0.338527
   -0.304163
    0.304163
   -0.278032
    0.278032
   -0.259849
    0.259849
   -0.249166
    0.249166
   -0.245646
    0.607643
   -0.578013
    0.578013
   -0.513018
    0.513018
   -0.439966
    0.439966
   -0.374039
    0.374039
   -0.320533
    0.320533
   -0.279779
    0.279779
   -0.250364
    0.250364
   -0.230651
    0.230651
   -0.219346
    0.219346
   -0.215665
    0.744742
   -0.676956
    0.676956
   -0.557755
    0.557755
   -0.444365
    0.444365
   -0.354971
    0.354971
   -0.289787
    0.289787
   -0.244057
    0.244057
   -0.212996
    0.212996
   -0.193043
    0.193043
   -0.181903
    0.181903
   -0.178321
    1.017412
   -0.827314
    0.827314
   -0.596679
    0.596679
   -0.424769
    0.424769
   -0.311694
    0.311694
   -0.239585
    0.239585
   -0.193667
    0.193667
   -0.164519
    0.164519
   -0.146622
    0.146622
   -0.136900
    0.136900
   -0.133816
    1.670280
   -1.018208
    1.018208
   -0.576880
    0.576880
   -0.346336
    0.346336
   -0.227452
    0.227452
   -0.163193
    0.163193
   -0.126506
    0.126506
   -0.104792
    0.104792
   -0.092025
    0.092025
   -0.085262
    0.085262
   -0.083140
    3.627290
   -0.998359
    0.998359
   -0.346297
    0.346297
   -0.156244
    0.156244
   -0.088585
    0.088585
   -0.059230
    0.059230
   -0.044371
    0.044371
   -0.036117
    0.036117
   -0.031425
    0.031425
   -0.028981
    0.028981
   -0.028221
